HEADER
"PSFversion" "1.00"
"I0n" "xort"
"C0n" "analogLib_cap_spectre"
"VBn VAn" "analogLib_vpulse_spectre"
"Vn" "analogLib_vdc_spectre"
