HEADER
"PSFversion" "1.00"
"simulator" "spectre"
"version" "21.1.0.751.isr19"
"date" "6:11:35 PM, Mon Apr 15, 2024"
"design" "// Generated for: spectre"
"analysis type" "info"
"analysis name" "designParamVals"
"analysis description" "Circuit Information"
"xVecSorted" "unknown"
"tolerance.relative" 0.000100000
TYPE
"top-level" STRUCT(
"temp" FLOAT DOUBLE
"tnom" FLOAT DOUBLE
"temper" FLOAT DOUBLE
"time" FLOAT DOUBLE
"wn" FLOAT DOUBLE
"wp" FLOAT DOUBLE
"cj1" FLOAT DOUBLE
"cjsw1" FLOAT DOUBLE
"nsub1" FLOAT DOUBLE
"npeak1" FLOAT DOUBLE
"noia1" FLOAT DOUBLE
"noib1" FLOAT DOUBLE
"cj2" FLOAT DOUBLE
"cjsw2" FLOAT DOUBLE
"nsub2" FLOAT DOUBLE
"npeak2" FLOAT DOUBLE
"noia2" FLOAT DOUBLE
"noib2" FLOAT DOUBLE
"cj3" FLOAT DOUBLE
"cjsw3" FLOAT DOUBLE
"nsub3" FLOAT DOUBLE
"npeak3" FLOAT DOUBLE
"noia3" FLOAT DOUBLE
"noib3" FLOAT DOUBLE
"cj4" FLOAT DOUBLE
"cjsw4" FLOAT DOUBLE
"nsub4" FLOAT DOUBLE
"npeak4" FLOAT DOUBLE
"noia4" FLOAT DOUBLE
"noib4" FLOAT DOUBLE
"cj5" FLOAT DOUBLE
"cjsw5" FLOAT DOUBLE
"nsub5" FLOAT DOUBLE
"npeak5" FLOAT DOUBLE
"noia5" FLOAT DOUBLE
"noib5" FLOAT DOUBLE
"cj6" FLOAT DOUBLE
"cjsw6" FLOAT DOUBLE
"nsub6" FLOAT DOUBLE
"npeak6" FLOAT DOUBLE
"noia6" FLOAT DOUBLE
"noib6" FLOAT DOUBLE
"cj7" FLOAT DOUBLE
"cjsw7" FLOAT DOUBLE
"nsub7" FLOAT DOUBLE
"ld7" FLOAT DOUBLE
"wd7" FLOAT DOUBLE
"cj8" FLOAT DOUBLE
"cjsw8" FLOAT DOUBLE
"nsub8" FLOAT DOUBLE
"npeak8" FLOAT DOUBLE
"noia8" FLOAT DOUBLE
"noib8" FLOAT DOUBLE
"cj9" FLOAT DOUBLE
"cjsw9" FLOAT DOUBLE
"nsub9" FLOAT DOUBLE
"npeak9" FLOAT DOUBLE
"noia9" FLOAT DOUBLE
"noib9" FLOAT DOUBLE
"cj10" FLOAT DOUBLE
"cjsw10" FLOAT DOUBLE
"nsub10" FLOAT DOUBLE
"ld10" FLOAT DOUBLE
"wd10" FLOAT DOUBLE
"cj11" FLOAT DOUBLE
"cjsw11" FLOAT DOUBLE
"nsub11" FLOAT DOUBLE
"npeak11" FLOAT DOUBLE
"rhv11" FLOAT DOUBLE
"cj12" FLOAT DOUBLE
"cjsw12" FLOAT DOUBLE
"nsub12" FLOAT DOUBLE
"npeak12" FLOAT DOUBLE
"rhv12" FLOAT DOUBLE
"cj13" FLOAT DOUBLE
"cjsw13" FLOAT DOUBLE
"nsub13" FLOAT DOUBLE
"npeak13" FLOAT DOUBLE
"rhv13" FLOAT DOUBLE
"cj14" FLOAT DOUBLE
"cjsw14" FLOAT DOUBLE
"nsub14" FLOAT DOUBLE
"npeak14" FLOAT DOUBLE
"rhv14" FLOAT DOUBLE
"beta115" FLOAT DOUBLE
"beta215" FLOAT DOUBLE
"rj15" FLOAT DOUBLE
"cj15" FLOAT DOUBLE
"cjsw15" FLOAT DOUBLE
"cgdx115" FLOAT DOUBLE
"nsub15" FLOAT DOUBLE
"npeak15" FLOAT DOUBLE
"rhv15" FLOAT DOUBLE
"beta116" FLOAT DOUBLE
"beta216" FLOAT DOUBLE
"rj16" FLOAT DOUBLE
"cj16" FLOAT DOUBLE
"cjsw16" FLOAT DOUBLE
"cgdx116" FLOAT DOUBLE
"nsub16" FLOAT DOUBLE
"npeak16" FLOAT DOUBLE
"rhv16" FLOAT DOUBLE
"mueph117" FLOAT DOUBLE
"muephl17" FLOAT DOUBLE
"vfbc17" FLOAT DOUBLE
"tox17" FLOAT DOUBLE
"nsubc17" FLOAT DOUBLE
"nsubp17" FLOAT DOUBLE
"rd17" FLOAT DOUBLE
"rdvd17" FLOAT DOUBLE
"loverld17" FLOAT DOUBLE
"cgso17" FLOAT DOUBLE
"cgdo17" FLOAT DOUBLE
"cj17" FLOAT DOUBLE
"cjsw17" FLOAT DOUBLE
"mueph118" FLOAT DOUBLE
"muephl18" FLOAT DOUBLE
"vfbc18" FLOAT DOUBLE
"tox18" FLOAT DOUBLE
"nsubc18" FLOAT DOUBLE
"nsubp18" FLOAT DOUBLE
"rd18" FLOAT DOUBLE
"rdvd18" FLOAT DOUBLE
"loverld18" FLOAT DOUBLE
"cgso18" FLOAT DOUBLE
"cgdo18" FLOAT DOUBLE
"cj18" FLOAT DOUBLE
"cjsw18" FLOAT DOUBLE
"cj19" FLOAT DOUBLE
"cjsw19" FLOAT DOUBLE
"nsub19" FLOAT DOUBLE
"npeak19" FLOAT DOUBLE
"k119" FLOAT DOUBLE
"cj20" FLOAT DOUBLE
"cjsw20" FLOAT DOUBLE
"nsub20" FLOAT DOUBLE
"npeak20" FLOAT DOUBLE
"k120" FLOAT DOUBLE
"cj21" FLOAT DOUBLE
"cjsw21" FLOAT DOUBLE
"nsub21" FLOAT DOUBLE
"npeak21" FLOAT DOUBLE
"k121" FLOAT DOUBLE
"cj22" FLOAT DOUBLE
"cjsw22" FLOAT DOUBLE
"nsub22" FLOAT DOUBLE
"npeak22" FLOAT DOUBLE
"k122" FLOAT DOUBLE
"cj23" FLOAT DOUBLE
"cjsw23" FLOAT DOUBLE
"nsub23" FLOAT DOUBLE
"npeak23" FLOAT DOUBLE
"k123" FLOAT DOUBLE
"cj24" FLOAT DOUBLE
"cjsw24" FLOAT DOUBLE
"nsub24" FLOAT DOUBLE
"npeak24" FLOAT DOUBLE
"k124" FLOAT DOUBLE
"cj25" FLOAT DOUBLE
"cjsw25" FLOAT DOUBLE
"nsub25" FLOAT DOUBLE
"npeak25" FLOAT DOUBLE
"k125" FLOAT DOUBLE
"cj26" FLOAT DOUBLE
"cjsw26" FLOAT DOUBLE
"nsub26" FLOAT DOUBLE
"npeak26" FLOAT DOUBLE
"k126" FLOAT DOUBLE
"cj27" FLOAT DOUBLE
"cjsw27" FLOAT DOUBLE
"nsub27" FLOAT DOUBLE
"npeak27" FLOAT DOUBLE
"k127" FLOAT DOUBLE
"cj28" FLOAT DOUBLE
"cjsw28" FLOAT DOUBLE
"nsub28" FLOAT DOUBLE
"npeak28" FLOAT DOUBLE
"k128" FLOAT DOUBLE
"cj29" FLOAT DOUBLE
"cjsw29" FLOAT DOUBLE
"nsub29" FLOAT DOUBLE
"npeak29" FLOAT DOUBLE
"k129" FLOAT DOUBLE
"cj30" FLOAT DOUBLE
"cjsw30" FLOAT DOUBLE
"nsub30" FLOAT DOUBLE
"npeak30" FLOAT DOUBLE
"k130" FLOAT DOUBLE
"nsub31" FLOAT DOUBLE
"npeak31" FLOAT DOUBLE
"nsub32" FLOAT DOUBLE
"npeak32" FLOAT DOUBLE
"mueph133" FLOAT DOUBLE
"muephl33" FLOAT DOUBLE
"nsubc33" FLOAT DOUBLE
"nsubp33" FLOAT DOUBLE
"xw33" FLOAT DOUBLE
"lover33" FLOAT DOUBLE
"cgso33" FLOAT DOUBLE
"cgdo33" FLOAT DOUBLE
"cj33" FLOAT DOUBLE
"cjsw33" FLOAT DOUBLE
"rsh33" FLOAT DOUBLE
"clm633" FLOAT DOUBLE
"nfalp33" FLOAT DOUBLE
"nftrp33" FLOAT DOUBLE
"mueph134" FLOAT DOUBLE
"muephl34" FLOAT DOUBLE
"vfbc34" FLOAT DOUBLE
"nsubc34" FLOAT DOUBLE
"xw34" FLOAT DOUBLE
"lover34" FLOAT DOUBLE
"cgso34" FLOAT DOUBLE
"cgdo34" FLOAT DOUBLE
"cj34" FLOAT DOUBLE
"cjsw34" FLOAT DOUBLE
"rsh34" FLOAT DOUBLE
"clm634" FLOAT DOUBLE
"nfalp34" FLOAT DOUBLE
"nftrp34" FLOAT DOUBLE
"mueph135" FLOAT DOUBLE
"muephl35" FLOAT DOUBLE
"vfbc35" FLOAT DOUBLE
"nsubc35" FLOAT DOUBLE
"nsubp35" FLOAT DOUBLE
"xw35" FLOAT DOUBLE
"lover35" FLOAT DOUBLE
"cgso35" FLOAT DOUBLE
"cgdo35" FLOAT DOUBLE
"cj35" FLOAT DOUBLE
"cjsw35" FLOAT DOUBLE
"rsh35" FLOAT DOUBLE
"clm635" FLOAT DOUBLE
"nfalp35" FLOAT DOUBLE
"nftrp35" FLOAT DOUBLE
"mueph136" FLOAT DOUBLE
"muephl36" FLOAT DOUBLE
"vfbc36" FLOAT DOUBLE
"nsubc36" FLOAT DOUBLE
"nsubp36" FLOAT DOUBLE
"xw36" FLOAT DOUBLE
"lover36" FLOAT DOUBLE
"cgso36" FLOAT DOUBLE
"cgdo36" FLOAT DOUBLE
"cj36" FLOAT DOUBLE
"cjsw36" FLOAT DOUBLE
"rsh36" FLOAT DOUBLE
"clm636" FLOAT DOUBLE
"nfalp36" FLOAT DOUBLE
"nftrp36" FLOAT DOUBLE
"mueph137" FLOAT DOUBLE
"muephl37" FLOAT DOUBLE
"nsubc37" FLOAT DOUBLE
"xw37" FLOAT DOUBLE
"lover37" FLOAT DOUBLE
"cgso37" FLOAT DOUBLE
"cgdo37" FLOAT DOUBLE
"cj37" FLOAT DOUBLE
"cjsw37" FLOAT DOUBLE
"rsh37" FLOAT DOUBLE
"clm637" FLOAT DOUBLE
"nfalp37" FLOAT DOUBLE
"nftrp37" FLOAT DOUBLE
"mueph138" FLOAT DOUBLE
"muephl38" FLOAT DOUBLE
"nsubc38" FLOAT DOUBLE
"xw38" FLOAT DOUBLE
"lover38" FLOAT DOUBLE
"cgso38" FLOAT DOUBLE
"cgdo38" FLOAT DOUBLE
"cj38" FLOAT DOUBLE
"cjsw38" FLOAT DOUBLE
"rsh38" FLOAT DOUBLE
"clm638" FLOAT DOUBLE
"nfalp38" FLOAT DOUBLE
"nftrp38" FLOAT DOUBLE
"cj39" FLOAT DOUBLE
"cjsw39" FLOAT DOUBLE
"nsub39" FLOAT DOUBLE
"ld39" FLOAT DOUBLE
"wd39" FLOAT DOUBLE
"mueph140" FLOAT DOUBLE
"muephl40" FLOAT DOUBLE
"vfbc40" FLOAT DOUBLE
"nsubc40" FLOAT DOUBLE
"xw40" FLOAT DOUBLE
"lover40" FLOAT DOUBLE
"cgso40" FLOAT DOUBLE
"cgdo40" FLOAT DOUBLE
"cj40" FLOAT DOUBLE
"cjsw40" FLOAT DOUBLE
"rsh40" FLOAT DOUBLE
"clm640" FLOAT DOUBLE
"nfalp40" FLOAT DOUBLE
"nftrp40" FLOAT DOUBLE
"mueph141" FLOAT DOUBLE
"muephl41" FLOAT DOUBLE
"nsubc41" FLOAT DOUBLE
"xw41" FLOAT DOUBLE
"lover41" FLOAT DOUBLE
"cgso41" FLOAT DOUBLE
"cgdo41" FLOAT DOUBLE
"cj41" FLOAT DOUBLE
"cjsw41" FLOAT DOUBLE
"rsh41" FLOAT DOUBLE
"clm641" FLOAT DOUBLE
"nfalp41" FLOAT DOUBLE
"nftrp41" FLOAT DOUBLE
"cj42" FLOAT DOUBLE
"cjsw42" FLOAT DOUBLE
"nsub42" FLOAT DOUBLE
"ld42" FLOAT DOUBLE
"wd42" FLOAT DOUBLE
"cj43" FLOAT DOUBLE
"cjsw43" FLOAT DOUBLE
"nsub43" FLOAT DOUBLE
"npeak43" FLOAT DOUBLE
"rhv43" FLOAT DOUBLE
"cj44" FLOAT DOUBLE
"cjsw44" FLOAT DOUBLE
"nsub44" FLOAT DOUBLE
"npeak44" FLOAT DOUBLE
"rhv44" FLOAT DOUBLE
"cj45" FLOAT DOUBLE
"cjsw45" FLOAT DOUBLE
"nsub45" FLOAT DOUBLE
"npeak45" FLOAT DOUBLE
"rhv45" FLOAT DOUBLE
"cj46" FLOAT DOUBLE
"cjsw46" FLOAT DOUBLE
"nsub46" FLOAT DOUBLE
"npeak46" FLOAT DOUBLE
"rhv46" FLOAT DOUBLE
"beta147" FLOAT DOUBLE
"beta247" FLOAT DOUBLE
"rj47" FLOAT DOUBLE
"cj47" FLOAT DOUBLE
"cjsw47" FLOAT DOUBLE
"cgdx147" FLOAT DOUBLE
"nsub47" FLOAT DOUBLE
"npeak47" FLOAT DOUBLE
"rhv47" FLOAT DOUBLE
"beta148" FLOAT DOUBLE
"beta248" FLOAT DOUBLE
"rj48" FLOAT DOUBLE
"cj48" FLOAT DOUBLE
"cjsw48" FLOAT DOUBLE
"cgdx148" FLOAT DOUBLE
"nsub48" FLOAT DOUBLE
"npeak48" FLOAT DOUBLE
"rhv48" FLOAT DOUBLE
"mueph149" FLOAT DOUBLE
"muephl49" FLOAT DOUBLE
"vfbc49" FLOAT DOUBLE
"tox49" FLOAT DOUBLE
"nsubc49" FLOAT DOUBLE
"nsubp49" FLOAT DOUBLE
"rd49" FLOAT DOUBLE
"rdvd49" FLOAT DOUBLE
"loverld49" FLOAT DOUBLE
"cgso49" FLOAT DOUBLE
"cgdo49" FLOAT DOUBLE
"cj49" FLOAT DOUBLE
"cjsw49" FLOAT DOUBLE
"mueph150" FLOAT DOUBLE
"muephl50" FLOAT DOUBLE
"vfbc50" FLOAT DOUBLE
"tox50" FLOAT DOUBLE
"nsubc50" FLOAT DOUBLE
"nsubp50" FLOAT DOUBLE
"rd50" FLOAT DOUBLE
"rdvd50" FLOAT DOUBLE
"loverld50" FLOAT DOUBLE
"cgso50" FLOAT DOUBLE
"cgdo50" FLOAT DOUBLE
"cj50" FLOAT DOUBLE
"cjsw50" FLOAT DOUBLE
"cj51" FLOAT DOUBLE
"cjsw51" FLOAT DOUBLE
"nsub51" FLOAT DOUBLE
"npeak51" FLOAT DOUBLE
"k151" FLOAT DOUBLE
"cj52" FLOAT DOUBLE
"cjsw52" FLOAT DOUBLE
"nsub52" FLOAT DOUBLE
"npeak52" FLOAT DOUBLE
"k152" FLOAT DOUBLE
"cj53" FLOAT DOUBLE
"cjsw53" FLOAT DOUBLE
"nsub53" FLOAT DOUBLE
"npeak53" FLOAT DOUBLE
"k153" FLOAT DOUBLE
"cj54" FLOAT DOUBLE
"cjsw54" FLOAT DOUBLE
"nsub54" FLOAT DOUBLE
"npeak54" FLOAT DOUBLE
"k154" FLOAT DOUBLE
"cj55" FLOAT DOUBLE
"cjsw55" FLOAT DOUBLE
"nsub55" FLOAT DOUBLE
"npeak55" FLOAT DOUBLE
"k155" FLOAT DOUBLE
"cj56" FLOAT DOUBLE
"cjsw56" FLOAT DOUBLE
"nsub56" FLOAT DOUBLE
"npeak56" FLOAT DOUBLE
"k156" FLOAT DOUBLE
"cj57" FLOAT DOUBLE
"cjsw57" FLOAT DOUBLE
"nsub57" FLOAT DOUBLE
"npeak57" FLOAT DOUBLE
"k157" FLOAT DOUBLE
"cj58" FLOAT DOUBLE
"cjsw58" FLOAT DOUBLE
"nsub58" FLOAT DOUBLE
"npeak58" FLOAT DOUBLE
"k158" FLOAT DOUBLE
"cj59" FLOAT DOUBLE
"cjsw59" FLOAT DOUBLE
"nsub59" FLOAT DOUBLE
"npeak59" FLOAT DOUBLE
"k159" FLOAT DOUBLE
"cj60" FLOAT DOUBLE
"cjsw60" FLOAT DOUBLE
"nsub60" FLOAT DOUBLE
"npeak60" FLOAT DOUBLE
"k160" FLOAT DOUBLE
"cj61" FLOAT DOUBLE
"cjsw61" FLOAT DOUBLE
"nsub61" FLOAT DOUBLE
"npeak61" FLOAT DOUBLE
"k161" FLOAT DOUBLE
"cj62" FLOAT DOUBLE
"cjsw62" FLOAT DOUBLE
"nsub62" FLOAT DOUBLE
"npeak62" FLOAT DOUBLE
"k162" FLOAT DOUBLE
"nsub63" FLOAT DOUBLE
"npeak63" FLOAT DOUBLE
"nsub64" FLOAT DOUBLE
"npeak64" FLOAT DOUBLE
"rc65" FLOAT DOUBLE
"re65" FLOAT DOUBLE
"cje65" FLOAT DOUBLE
"cjc65" FLOAT DOUBLE
"mis_lat2" FLOAT DOUBLE
"mise_lat2" FLOAT DOUBLE
"misv_lat2" FLOAT DOUBLE
"rc66" FLOAT DOUBLE
"re66" FLOAT DOUBLE
"cje66" FLOAT DOUBLE
"tf66" FLOAT DOUBLE
"mis_vert10" FLOAT DOUBLE
"mbf_vert10" FLOAT DOUBLE
"mise_vert10" FLOAT DOUBLE
"cgsa67" FLOAT DOUBLE
"cgsp67" FLOAT DOUBLE
"cgda67" FLOAT DOUBLE
"cgdp67" FLOAT DOUBLE
"mr_rdiffn3" FLOAT DOUBLE
"cgsa68" FLOAT DOUBLE
"cgsp68" FLOAT DOUBLE
"cgda68" FLOAT DOUBLE
"cgdp68" FLOAT DOUBLE
"mr_rdiffp3" FLOAT DOUBLE
"cgsa69" FLOAT DOUBLE
"cgsp69" FLOAT DOUBLE
"cgda69" FLOAT DOUBLE
"cgdp69" FLOAT DOUBLE
"mr_rdiffn" FLOAT DOUBLE
"cgsa70" FLOAT DOUBLE
"cgsp70" FLOAT DOUBLE
"cgda70" FLOAT DOUBLE
"cgdp70" FLOAT DOUBLE
"mr_rdiffp" FLOAT DOUBLE
"mr_rpoly1" FLOAT DOUBLE
"cgsa72" FLOAT DOUBLE
"cgsp72" FLOAT DOUBLE
"cgda72" FLOAT DOUBLE
"cgdp72" FLOAT DOUBLE
"wd72" FLOAT DOUBLE
"mr_rnwell" FLOAT DOUBLE
"mr_rpoly2" FLOAT DOUBLE
"mr_rpoly2p" FLOAT DOUBLE
"mr_rpoly2ph" FLOAT DOUBLE
"mr_rpolyh" FLOAT DOUBLE
"rsh77" FLOAT DOUBLE
"wd77" FLOAT DOUBLE
"mr_rpolyz" FLOAT DOUBLE
"rsh78" FLOAT DOUBLE
"wd78" FLOAT DOUBLE
"cwa78" FLOAT DOUBLE
"cwp78" FLOAT DOUBLE
"cjod178" FLOAT DOUBLE
"cjod278" FLOAT DOUBLE
"rw1d78" FLOAT DOUBLE
"rw1078" FLOAT DOUBLE
"rw2d78" FLOAT DOUBLE
"rw2078" FLOAT DOUBLE
"mr_rpoly2rf" FLOAT DOUBLE
"rsh79" FLOAT DOUBLE
"wd79" FLOAT DOUBLE
"cwa79" FLOAT DOUBLE
"cwp79" FLOAT DOUBLE
"cjod179" FLOAT DOUBLE
"cjod279" FLOAT DOUBLE
"rw1d79" FLOAT DOUBLE
"rw1079" FLOAT DOUBLE
"rw2d79" FLOAT DOUBLE
"rw2079" FLOAT DOUBLE
"mr_rpolyhrf" FLOAT DOUBLE
"cgsa80" FLOAT DOUBLE
"cgsp80" FLOAT DOUBLE
"cgda80" FLOAT DOUBLE
"cgdp80" FLOAT DOUBLE
"wd80" FLOAT DOUBLE
"fdis83" FLOAT DOUBLE
"rdis83" FLOAT DOUBLE
"fdrs83" FLOAT DOUBLE
"rar83" FLOAT DOUBLE
"is83" FLOAT DOUBLE
"rc83" FLOAT DOUBLE
"bvbe83" FLOAT DOUBLE
"bvbc83" FLOAT DOUBLE
"cje83" FLOAT DOUBLE
"cjc83" FLOAT DOUBLE
"rz84" FLOAT DOUBLE
"isf84" FLOAT DOUBLE
"ca85" FLOAT DOUBLE
"cp85" FLOAT DOUBLE
"mc_cpoly" FLOAT DOUBLE
"ca86" FLOAT DOUBLE
"vc286" FLOAT DOUBLE
"mc_cmim" FLOAT DOUBLE
"ca87" FLOAT DOUBLE
"vc1a87" FLOAT DOUBLE
"vc2a87" FLOAT DOUBLE
"mc_cpmim" FLOAT DOUBLE
"cma88" FLOAT DOUBLE
"cmp88" FLOAT DOUBLE
"mc_cmimrf" FLOAT DOUBLE
"ca89" FLOAT DOUBLE
"cp89" FLOAT DOUBLE
"mr_cpolyrf" FLOAT DOUBLE
"ca90" FLOAT DOUBLE
"cp90" FLOAT DOUBLE
"nsub91" FLOAT DOUBLE
"npeak91" FLOAT DOUBLE
"mv_cvar" FLOAT DOUBLE
"mu_cvar" FLOAT DOUBLE
"cpad92" FLOAT DOUBLE
"cw1092" FLOAT DOUBLE
"cw2092" FLOAT DOUBLE
"cjod192" FLOAT DOUBLE
"cjod292" FLOAT DOUBLE
"cpad93" FLOAT DOUBLE
"cjw93" FLOAT DOUBLE
"cjod193" FLOAT DOUBLE
"cjod293" FLOAT DOUBLE
"bvr154" FLOAT DOUBLE
"isf154" FLOAT DOUBLE
"cjor154" FLOAT DOUBLE
"vbd1155" FLOAT DOUBLE
"rsd1155" FLOAT DOUBLE
"cjcpnp1155" FLOAT DOUBLE
"cjepnp2155" FLOAT DOUBLE
"ispnp1155" FLOAT DOUBLE
"ispnp2155" FLOAT DOUBLE
"nzd2155" FLOAT DOUBLE
"bvr156" FLOAT DOUBLE
"isf156" FLOAT DOUBLE
"cjor156" FLOAT DOUBLE
"vbd1157" FLOAT DOUBLE
"rsd1157" FLOAT DOUBLE
"cjcpnp1157" FLOAT DOUBLE
"cjepnp2157" FLOAT DOUBLE
"ispnp1157" FLOAT DOUBLE
"ispnp2157" FLOAT DOUBLE
"nzd2157" FLOAT DOUBLE
"bvr158" FLOAT DOUBLE
"isf158" FLOAT DOUBLE
"cjor158" FLOAT DOUBLE
"bvr159" FLOAT DOUBLE
"isf159" FLOAT DOUBLE
"cjor159" FLOAT DOUBLE
"bvr160" FLOAT DOUBLE
"isf160" FLOAT DOUBLE
"cjor160" FLOAT DOUBLE
"deltgox" FLOAT DOUBLE
"delvton" FLOAT DOUBLE
"delvtop" FLOAT DOUBLE
"deluon" FLOAT DOUBLE
"deluop" FLOAT DOUBLE
"dell" FLOAT DOUBLE
"delw" FLOAT DOUBLE
"deltgoxt" FLOAT DOUBLE
"delvtont" FLOAT DOUBLE
"delvtopt" FLOAT DOUBLE
"deluont" FLOAT DOUBLE
"deluopt" FLOAT DOUBLE
"dellt" FLOAT DOUBLE
"delwt" FLOAT DOUBLE
"deltgoxm" FLOAT DOUBLE
"delvtonm" FLOAT DOUBLE
"delvtonmh" FLOAT DOUBLE
"delvtopm" FLOAT DOUBLE
"deluonm" FLOAT DOUBLE
"deluonmh" FLOAT DOUBLE
"deluopm" FLOAT DOUBLE
"dellm" FLOAT DOUBLE
"delwm" FLOAT DOUBLE
"deltgoxtlv" FLOAT DOUBLE
"delvtontlv" FLOAT DOUBLE
"delvtoptlv" FLOAT DOUBLE
"deluontlv" FLOAT DOUBLE
"deluoptlv" FLOAT DOUBLE
"delltlv" FLOAT DOUBLE
"delwtlv" FLOAT DOUBLE
"deltgoxmlv" FLOAT DOUBLE
"delvtonmlv" FLOAT DOUBLE
"delvtopmlv" FLOAT DOUBLE
"deluonmlv" FLOAT DOUBLE
"deluopmlv" FLOAT DOUBLE
"dellmlv" FLOAT DOUBLE
"delwmlv" FLOAT DOUBLE
"deltgoxh" FLOAT DOUBLE
"delvtonh" FLOAT DOUBLE
"delvtoph" FLOAT DOUBLE
"deluonh" FLOAT DOUBLE
"deluoneh" FLOAT DOUBLE
"deluoph" FLOAT DOUBLE
"dellh" FLOAT DOUBLE
"delwh" FLOAT DOUBLE
"delrj" FLOAT DOUBLE
"delbeta" FLOAT DOUBLE
"drdiffn" FLOAT DOUBLE
"drdiffp" FLOAT DOUBLE
"drdiffnr" FLOAT DOUBLE
"drdiffps" FLOAT DOUBLE
"drpjfet" FLOAT DOUBLE
"ratiorw" FLOAT DOUBLE
"drpoly1" FLOAT DOUBLE
"dwdpoly1" FLOAT DOUBLE
"dwdpoly" FLOAT DOUBLE
"drpolyp" FLOAT DOUBLE
"dwdpoly2" FLOAT DOUBLE
"drpoly2" FLOAT DOUBLE
"drpoly2p" FLOAT DOUBLE
"drpoly2ph" FLOAT DOUBLE
"drpolyh" FLOAT DOUBLE
"dwdpolyh" FLOAT DOUBLE
"cgsdon" FLOAT DOUBLE
"cgbon" FLOAT DOUBLE
"cgsdop" FLOAT DOUBLE
"cgbop" FLOAT DOUBLE
"cgsont" FLOAT DOUBLE
"cgdont" FLOAT DOUBLE
"cgbont" FLOAT DOUBLE
"cgsonit" FLOAT DOUBLE
"cgdonit" FLOAT DOUBLE
"cgbonit" FLOAT DOUBLE
"cgsopt" FLOAT DOUBLE
"cgdopt" FLOAT DOUBLE
"cgbopt" FLOAT DOUBLE
"cgsdonm" FLOAT DOUBLE
"cgbonm" FLOAT DOUBLE
"cgsdopm" FLOAT DOUBLE
"cgbopm" FLOAT DOUBLE
"cgsonm50" FLOAT DOUBLE
"cgdonm50" FLOAT DOUBLE
"cgbonm50" FLOAT DOUBLE
"cgsonim50" FLOAT DOUBLE
"cgdonim50" FLOAT DOUBLE
"cgbonim50" FLOAT DOUBLE
"cgsopm50" FLOAT DOUBLE
"cgdopm50" FLOAT DOUBLE
"cgbopm50" FLOAT DOUBLE
"cgsdonh" FLOAT DOUBLE
"cgbonh" FLOAT DOUBLE
"cgsdoph" FLOAT DOUBLE
"cgboph" FLOAT DOUBLE
"cgsdonlv" FLOAT DOUBLE
"cgbonlv" FLOAT DOUBLE
"cgsdonmlv" FLOAT DOUBLE
"cgbonmlv" FLOAT DOUBLE
"cgsdopmlv" FLOAT DOUBLE
"cgbopmlv" FLOAT DOUBLE
"cgsdoplv" FLOAT DOUBLE
"cgboplv" FLOAT DOUBLE
"gummelbi" FLOAT DOUBLE
"recombbi" FLOAT DOUBLE
"ratiocje" FLOAT DOUBLE
"ratiocjc" FLOAT DOUBLE
"ratiocjs" FLOAT DOUBLE
"ratiorcb" FLOAT DOUBLE
"ratioreb" FLOAT DOUBLE
"extrapar" FLOAT DOUBLE
"ratiobv" FLOAT DOUBLE
"rbetabi" FLOAT DOUBLE
"recombpa" FLOAT DOUBLE
"norzener" FLOAT DOUBLE
"gummelpa" FLOAT DOUBLE
"mv_modn" FLOAT DOUBLE
"mu_modn" FLOAT DOUBLE
"mv_modnm" FLOAT DOUBLE
"mu_modnm" FLOAT DOUBLE
"mv_modnl" FLOAT DOUBLE
"mu_modnl" FLOAT DOUBLE
"mv_modnml" FLOAT DOUBLE
"mu_modnml" FLOAT DOUBLE
"mv_modpm" FLOAT DOUBLE
"mu_modpm" FLOAT DOUBLE
"mv_modpml" FLOAT DOUBLE
"mu_modpml" FLOAT DOUBLE
"mv_modp" FLOAT DOUBLE
"mu_modp" FLOAT DOUBLE
"mv_modpl" FLOAT DOUBLE
"mu_modpl" FLOAT DOUBLE
"mv_modnmh" FLOAT DOUBLE
"mu_modnmh" FLOAT DOUBLE
"mv_modnmhl" FLOAT DOUBLE
"mu_modnmhl" FLOAT DOUBLE
"mv_modnh" FLOAT DOUBLE
"mu_modnh" FLOAT DOUBLE
"mv_modnhl" FLOAT DOUBLE
"mu_modnhl" FLOAT DOUBLE
"mv_modn30m" FLOAT DOUBLE
"mu_modn30m" FLOAT DOUBLE
"mv_modn18t" FLOAT DOUBLE
"mu_modn18t" FLOAT DOUBLE
"mv_modpd30m" FLOAT DOUBLE
"mu_modpd30m" FLOAT DOUBLE
"mv_modp30m" FLOAT DOUBLE
"mu_modp30m" FLOAT DOUBLE
"mv_nmosw_2n" FLOAT DOUBLE
"mu_nmosw_2n" FLOAT DOUBLE
"mv_nmosw_3n" FLOAT DOUBLE
"mu_nmosw_3n" FLOAT DOUBLE
"mv_nmosw_4n" FLOAT DOUBLE
"mu_nmosw_4n" FLOAT DOUBLE
"mv_nmosmw_2n" FLOAT DOUBLE
"mu_nmosmw_2n" FLOAT DOUBLE
"mv_nmosmw_3n" FLOAT DOUBLE
"mu_nmosmw_3n" FLOAT DOUBLE
"mv_nmosmw_4n" FLOAT DOUBLE
"mu_nmosmw_4n" FLOAT DOUBLE
"mv_pmosw_2n" FLOAT DOUBLE
"mu_pmosw_2n" FLOAT DOUBLE
"mv_pmosw_3n" FLOAT DOUBLE
"mu_pmosw_3n" FLOAT DOUBLE
"mv_pmosw_4n" FLOAT DOUBLE
"mu_pmosw_4n" FLOAT DOUBLE
"mv_pmosmw_2n" FLOAT DOUBLE
"mu_pmosmw_2n" FLOAT DOUBLE
"mv_pmosmw_3n" FLOAT DOUBLE
"mu_pmosmw_3n" FLOAT DOUBLE
"mv_pmosmw_4n" FLOAT DOUBLE
"mu_pmosmw_4n" FLOAT DOUBLE
"mv_modnrf53" FLOAT DOUBLE
"mu_modnrf53" FLOAT DOUBLE
"mv_modprf53" FLOAT DOUBLE
"mu_modprf53" FLOAT DOUBLE
"TOPMET" FLOAT DOUBLE
"PHD_COATING" FLOAT DOUBLE
"PRIMLIB_WIP" FLOAT DOUBLE
"cmim" FLOAT DOUBLE
"cpmim" FLOAT DOUBLE
"cpmimc" FLOAT DOUBLE
"cpoly" FLOAT DOUBLE
"cpolyc" FLOAT DOUBLE
"cpolyrf" FLOAT DOUBLE
"cvar" FLOAT DOUBLE
"cvarm" FLOAT DOUBLE
"cvart" FLOAT DOUBLE
"dmodpm" FLOAT DOUBLE
"esdfdn5" FLOAT DOUBLE
"esdfdp5" FLOAT DOUBLE
"esdgcn5" FLOAT DOUBLE
"esdgcp5" FLOAT DOUBLE
"esdmodn" FLOAT DOUBLE
"esdmodnm" FLOAT DOUBLE
"esdpd18" FLOAT DOUBLE
"esdpd26" FLOAT DOUBLE
"esdpd30" FLOAT DOUBLE
"esdmodp" FLOAT DOUBLE
"esdmodpm" FLOAT DOUBLE
"lat2" FLOAT DOUBLE
"modn18t" FLOAT DOUBLE
"modn30m" FLOAT DOUBLE
"modn" FLOAT DOUBLE
"modnh" FLOAT DOUBLE
"modnhl" FLOAT DOUBLE
"modnl" FLOAT DOUBLE
"modnm" FLOAT DOUBLE
"modnmh" FLOAT DOUBLE
"modnmhl" FLOAT DOUBLE
"modnml" FLOAT DOUBLE
"modnmw" FLOAT DOUBLE
"modnrf" FLOAT DOUBLE
"modnw" FLOAT DOUBLE
"nwd" FLOAT DOUBLE
"padvdd" FLOAT DOUBLE
"padvss" FLOAT DOUBLE
"pfuse" FLOAT DOUBLE
"phdnwa850" FLOAT DOUBLE
"phdnwb850" FLOAT DOUBLE
"modp30m" FLOAT DOUBLE
"modp" FLOAT DOUBLE
"modpd30m" FLOAT DOUBLE
"modpl" FLOAT DOUBLE
"modpm" FLOAT DOUBLE
"modpml" FLOAT DOUBLE
"modpmw" FLOAT DOUBLE
"modprf" FLOAT DOUBLE
"modpw" FLOAT DOUBLE
"rdiffn3" FLOAT DOUBLE
"rdiffp3" FLOAT DOUBLE
"rnwell" FLOAT DOUBLE
"rpoly1" FLOAT DOUBLE
"rpoly1c" FLOAT DOUBLE
"rpoly2" FLOAT DOUBLE
"rpoly2c" FLOAT DOUBLE
"rpoly2p" FLOAT DOUBLE
"rpoly2pc" FLOAT DOUBLE
"rpoly2ph" FLOAT DOUBLE
"rpoly2phc" FLOAT DOUBLE
"rpoly2rf" FLOAT DOUBLE
"rpolyh" FLOAT DOUBLE
"rpolyhc" FLOAT DOUBLE
"rpolyhrf" FLOAT DOUBLE
"rpolyz" FLOAT DOUBLE
"rpolyzc" FLOAT DOUBLE
"rpolyzrf" FLOAT DOUBLE
"sbd5" FLOAT DOUBLE
"subdiode" FLOAT DOUBLE
"vert10" FLOAT DOUBLE
"welldiode" FLOAT DOUBLE
"zd2sm24" FLOAT DOUBLE
"SP014S300C" FLOAT DOUBLE
"SP018S300C" FLOAT DOUBLE
"SP020S180C" FLOAT DOUBLE
"SP023S200C" FLOAT DOUBLE
"SP025C200C" FLOAT DOUBLE
"SP026S200C" FLOAT DOUBLE
"SP028C200C" FLOAT DOUBLE
"SP028S300C" FLOAT DOUBLE
"SP030C200C" FLOAT DOUBLE
"SP037S180C" FLOAT DOUBLE
"SP038S300C" FLOAT DOUBLE
"SP040C200C" FLOAT DOUBLE
"SP040C300C" FLOAT DOUBLE
"SP045C200C" FLOAT DOUBLE
"SP047S180C" FLOAT DOUBLE
"SP050S155C" FLOAT DOUBLE
"SP051C300C" FLOAT DOUBLE
"SP068C300C" FLOAT DOUBLE
"SP090C200C" FLOAT DOUBLE
"SP090S155C" FLOAT DOUBLE
"SP112C300C" FLOAT DOUBLE
"SP140C200C" FLOAT DOUBLE
"SP200C200C" FLOAT DOUBLE
"SY014C165C" FLOAT DOUBLE
"SY015C200C" FLOAT DOUBLE
"SY016C180C" FLOAT DOUBLE
"SY017C165C" FLOAT DOUBLE
"SY019C180C" FLOAT DOUBLE
"SY028C160C" FLOAT DOUBLE
"SP014S300D" FLOAT DOUBLE
"SP020S180D" FLOAT DOUBLE
"SP026S200D" FLOAT DOUBLE
"SP037S180D" FLOAT DOUBLE
"SP047S180D" FLOAT DOUBLE
"SP050S155D" FLOAT DOUBLE
"SP090S155D" FLOAT DOUBLE
"SP011S200T" FLOAT DOUBLE
"SP015S250T" FLOAT DOUBLE
"SP020S250T" FLOAT DOUBLE
"SP021S200T" FLOAT DOUBLE
"SP024S250T" FLOAT DOUBLE
"SP031S250T" FLOAT DOUBLE
"SP033S150T" FLOAT DOUBLE
"SP037S250T" FLOAT DOUBLE
"SP047S250T" FLOAT DOUBLE
"SP049S300T" FLOAT DOUBLE
"SP060S300T" FLOAT DOUBLE
"SP073S250T" FLOAT DOUBLE
"SP100S250T" FLOAT DOUBLE
"SP133S300T" FLOAT DOUBLE
"DI15PT" FLOAT DOUBLE
"DI20PT" FLOAT DOUBLE
"DI25PT" FLOAT DOUBLE
"DI30PT" FLOAT DOUBLE
"DI35PT" FLOAT DOUBLE
"DI40PT" FLOAT DOUBLE
"DI45PT" FLOAT DOUBLE
"DI50PT" FLOAT DOUBLE
"DI55PT" FLOAT DOUBLE
"DI60PT" FLOAT DOUBLE
) PROP(
"key" "parameters"
)
VALUE
"top-level" "top-level" (
2.700000000000000e+01
2.700000000000000e+01
2.700000000000000e+01
0.000000000000000e+00
1.000000000000000e-05
1.000000000000000e-06
9.395000000000000e-04
2.500000000000000e-10
2.808000000000000e+17
2.611000000000000e+17
0.000000000000000e+00
1.250876647560239e+01
9.400000000000000e-04
2.500000000000000e-10
2.600000000000000e+17
2.265000000000000e+17
0.000000000000000e+00
1.321092355438381e+01
8.300000000000000e-04
2.500000000000000e-10
1.660000000000000e+17
2.187000000000000e+17
0.000000000000000e+00
1.204472949512141e+01
5.313000000000000e-03
2.500000000000000e-10
1.740000000000000e+17
1.446000000000000e+17
0.000000000000000e+00
1.278940496008291e+01
1.359500000000000e-03
3.197000000000000e-10
1.013000000000000e+17
8.479000000000000e+16
0.000000000000000e+00
1.044987335170067e+01
1.360000000000000e-03
3.500000000000000e-10
7.100000000000000e+16
6.778000000000000e+16
0.000000000000000e+00
1.018904236397174e+01
9.395000000000000e-04
2.500000000000000e-10
2.808000000000000e+17
-5.005000000000000e-08
9.403000000000000e-08
1.360000000000000e-03
3.195000000000000e-10
6.403000000000000e+16
9.241000000000000e+16
0.000000000000000e+00
1.101435773859974e+01
1.360000000000000e-03
3.500000000000000e-10
1.360000000000000e+17
7.838000000000000e+16
0.000000000000000e+00
9.783013399068254e+00
1.360000000000000e-03
3.195000000000000e-10
6.403000000000000e+16
-7.130000000000000e-08
3.449000000000000e-08
8.000000000000001e-05
5.100000000000000e-10
2.252000000000000e+17
2.092000000000000e+17
1.547000000000000e+03
8.302500000000000e-04
2.500000000000000e-10
1.619000000000000e+17
1.439500000000000e+17
1.632500000000000e+03
8.000000000000001e-05
5.100000000000000e-10
2.169000000000000e+17
2.236000000000000e+17
1.328000000000000e+03
8.302500000000000e-04
2.500000000000000e-10
1.588000000000000e+17
1.588000000000000e+17
1.105000000000000e+03
4.978500000000000e+00
5.056500000000000e+00
9.182500000000000e-01
8.400000000000000e-04
2.500000000000000e-10
3.575000000000000e-10
2.306000000000000e+17
2.134000000000000e+17
7.528500000000000e-03
4.499500000000000e+00
2.208000000000000e+00
9.407500000000000e-01
8.400000000000000e-04
2.500000000000000e-10
4.400000000000000e-10
2.193000000000000e+17
2.211000000000000e+17
1.015600000000000e-02
7.978600000000000e+03
5.055600000000000e-01
-4.494000000000000e-01
1.500000000000000e-08
5.536200000000000e+16
1.179700000000000e+17
7.198200000000000e-03
5.136300000000000e-02
2.300000000000000e-07
2.087000000000000e-10
3.861000000000000e-10
1.360000000000000e-03
3.500000000000000e-10
7.978600000000000e+03
5.055600000000000e-01
-4.494000000000000e-01
1.500000000000000e-08
5.536200000000000e+16
1.179700000000000e+17
7.198200000000000e-03
5.136300000000000e-02
2.300000000000000e-07
2.087000000000000e-10
3.861000000000000e-10
1.360000000000000e-03
3.500000000000000e-10
8.302500000000000e-04
2.500000000000000e-10
2.120000000000000e+17
2.187000000000000e+17
5.920000000000000e-01
8.302500000000000e-04
2.500000000000000e-10
2.120000000000000e+17
2.187000000000000e+17
5.920000000000000e-01
8.302500000000000e-04
2.500000000000000e-10
2.120000000000000e+17
2.187000000000000e+17
5.920000000000000e-01
8.302500000000000e-04
2.500000000000000e-10
1.730000000000000e+17
1.446000000000000e+17
9.998000000000000e-01
8.302500000000000e-04
2.500000000000000e-10
1.730000000000000e+17
1.446000000000000e+17
9.998000000000000e-01
8.302500000000000e-04
2.500000000000000e-10
1.730000000000000e+17
1.446000000000000e+17
9.998000000000000e-01
1.360000000000000e-03
3.500000000000000e-10
1.010200000000000e+17
9.240000000000000e+16
3.310000000000000e-01
1.360000000000000e-03
3.500000000000000e-10
1.010200000000000e+17
9.240000000000000e+16
3.310000000000000e-01
1.360000000000000e-03
3.500000000000000e-10
1.010200000000000e+17
9.240000000000000e+16
3.310000000000000e-01
1.360000000000000e-03
3.500000000000000e-10
6.300000000000000e+16
8.479000000000000e+16
5.410000000000000e-01
1.360000000000000e-03
3.500000000000000e-10
6.300000000000000e+16
8.479000000000000e+16
5.410000000000000e-01
1.360000000000000e-03
3.500000000000000e-10
6.300000000000000e+16
8.479000000000000e+16
5.410000000000000e-01
2.311000000000000e+17
2.310000000000000e+17
2.284000000000000e+17
1.450000000000000e+17
2.175100000000000e+04
-6.483000000000000e-02
1.960500000000000e+17
8.832800000000000e+17
1.042100000000000e-07
7.849999999999999e-08
7.136999999999999e-11
7.136999999999999e-11
8.400000000000000e-04
2.500000000000000e-10
7.500000000000000e+01
2.795200000000000e+00
0.000000000000000e+00
1.772753356339242e+01
2.543300000000000e+04
-2.727000000000000e-02
-1.164000000000000e+00
1.663600000000000e+17
7.170000000000000e-09
6.800000000000000e-08
6.244000000000001e-11
6.244000000000001e-11
8.400000000000000e-04
2.500000000000000e-10
7.500000000000000e+01
3.375300000000000e+00
0.000000000000000e+00
1.983166771766263e+01
2.891500000000000e+04
-2.584000000000000e-02
-9.635000000000000e-01
1.568700000000000e+17
1.003000000000000e+18
1.387700000000000e-07
5.900000000000000e-08
6.723000000000000e-11
6.723000000000000e-11
8.400000000000000e-04
2.500000000000000e-10
7.500000000000000e+01
4.244500000000000e+00
0.000000000000000e+00
1.790985512018637e+01
2.823700000000000e+04
5.102900000000000e-02
-1.163000000000000e+00
1.325600000000000e+17
4.438000000000000e+17
7.517000000000000e-08
8.799999999999999e-08
6.500000000000000e-11
6.500000000000000e-11
8.400000000000000e-04
2.500000000000000e-10
7.500000000000000e+01
3.447100000000000e+00
0.000000000000000e+00
1.916261808868174e+01
1.221500000000000e+04
-2.050000000000000e-01
5.814300000000000e+16
1.547000000000000e-08
3.049000000000000e-08
4.622000000000000e-11
4.622000000000000e-11
1.360000000000000e-03
3.500000000000000e-10
1.400000000000000e+02
1.243000000000000e+00
0.000000000000000e+00
1.611809565095832e+01
1.471600000000000e+04
-2.678000000000000e-01
7.121900000000000e+16
-5.200000000000000e-09
2.342000000000000e-08
4.646000000000000e-11
4.646000000000000e-11
1.360000000000000e-03
3.500000000000000e-10
1.400000000000000e+02
2.677100000000000e+00
0.000000000000000e+00
1.611809565095832e+01
9.395000000000000e-04
2.500000000000000e-10
2.808000000000000e+17
-5.005000000000000e-08
9.403000000000000e-08
1.096300000000000e+04
-1.493000000000000e-01
-5.246000000000000e-01
8.199400000000000e+16
-1.343000000000000e-08
2.300100000000000e-08
3.120000000000000e-11
3.120000000000000e-11
1.360000000000000e-03
3.500000000000000e-10
1.400000000000000e+02
2.820200000000000e+00
0.000000000000000e+00
1.721670793962643e+01
1.319400000000000e+04
-1.718000000000000e-01
1.249300000000000e+17
-5.970000000000000e-08
8.000000000000000e-09
3.136000000000000e-11
3.136000000000000e-11
1.360000000000000e-03
3.500000000000000e-10
1.400000000000000e+02
2.422400000000000e+00
0.000000000000000e+00
1.967344371244773e+01
1.360000000000000e-03
3.195000000000000e-10
6.403000000000000e+16
-7.130000000000000e-08
3.449000000000000e-08
8.000000000000001e-05
5.100000000000000e-10
2.252000000000000e+17
2.092000000000000e+17
1.547000000000000e+03
8.302500000000000e-04
2.500000000000000e-10
1.619000000000000e+17
1.439500000000000e+17
1.632500000000000e+03
8.000000000000001e-05
5.100000000000000e-10
2.169000000000000e+17
2.236000000000000e+17
1.328000000000000e+03
8.302500000000000e-04
2.500000000000000e-10
1.588000000000000e+17
1.588000000000000e+17
1.105000000000000e+03
4.978500000000000e+00
5.056500000000000e+00
9.182500000000000e-01
8.400000000000000e-04
2.500000000000000e-10
3.575000000000000e-10
2.306000000000000e+17
2.134000000000000e+17
7.528500000000000e-03
4.499500000000000e+00
2.208000000000000e+00
9.407500000000000e-01
8.400000000000000e-04
2.500000000000000e-10
4.400000000000000e-10
2.193000000000000e+17
2.211000000000000e+17
1.015600000000000e-02
7.978600000000000e+03
5.055600000000000e-01
-4.494000000000000e-01
1.500000000000000e-08
5.536200000000000e+16
1.179700000000000e+17
7.198200000000000e-03
5.136300000000000e-02
2.300000000000000e-07
2.087000000000000e-10
3.861000000000000e-10
1.360000000000000e-03
3.500000000000000e-10
7.978600000000000e+03
5.055600000000000e-01
-4.494000000000000e-01
1.500000000000000e-08
5.536200000000000e+16
1.179700000000000e+17
7.198200000000000e-03
5.136300000000000e-02
2.300000000000000e-07
2.087000000000000e-10
3.861000000000000e-10
1.360000000000000e-03
3.500000000000000e-10
8.302500000000000e-04
2.500000000000000e-10
2.120000000000000e+17
2.187000000000000e+17
5.920000000000000e-01
8.302500000000000e-04
2.500000000000000e-10
2.120000000000000e+17
2.187000000000000e+17
5.920000000000000e-01
8.302500000000000e-04
2.500000000000000e-10
2.120000000000000e+17
2.187000000000000e+17
5.920000000000000e-01
8.302500000000000e-04
2.500000000000000e-10
1.730000000000000e+17
1.446000000000000e+17
9.998000000000000e-01
8.302500000000000e-04
2.500000000000000e-10
1.730000000000000e+17
1.446000000000000e+17
9.998000000000000e-01
8.302500000000000e-04
2.500000000000000e-10
1.730000000000000e+17
1.446000000000000e+17
9.998000000000000e-01
1.360000000000000e-03
3.500000000000000e-10
1.010200000000000e+17
9.240000000000000e+16
3.310000000000000e-01
1.360000000000000e-03
3.500000000000000e-10
1.010200000000000e+17
9.240000000000000e+16
3.310000000000000e-01
1.360000000000000e-03
3.500000000000000e-10
1.010200000000000e+17
9.240000000000000e+16