HEADER
"PSFversion" "1.00"
"design" "(\"lab2024\" \"tb_ycircuit\" \"schematic\" \"\")"
"simulator" "spectre"
"temperature" "27"
"host" ""
"date" "Apr 20 22:23:49 2024"
"title" ""
"analysisList" "()"
END
