HEADER
"PSFversion" "1.00"
"design" "(\"lab2024\" \"tb_inv\" \"schematic\" \"\")"
"simulator" "spectre"
"temperature" "27"
"host" ""
"date" "Jan 30 12:34:41 2024"
"title" ""
"analysisList" "()"
END
