HEADER
"PSFversion" "1.00"
"design" "(\"lab2024\" \"tb_inv\" \"schematic\" \"\")"
"simulator" "spectre"
"temperature" "27"
"host" ""
"date" "Jan 30 10:14:36 2024"
"title" ""
"analysisList" "()"
END
