HEADER
"PSFversion" "1.00"
"design" "(\"lab2024\" \"tb_inv\" \"schematic\" \"\")"
"simulator" "spectre"
"temperature" "27"
"host" ""
"date" "Apr 12 12:06:14 2024"
"title" ""
"analysisList" "()"
END
