HEADER
"PSFversion" "1.00"
"Time Stamp" "Jan 30 12:34:41 2024"
TYPE
"variable" STRUCT(
"value" FLOAT DOUBLE
) PROP( "key" "element" )
VALUE
"temp" "variable" ( 27 ) PROP( )
END
