HEADER
"PSFversion" "1.00"
"Time Stamp" "Jan 30 10:14:36 2024"
TYPE
"variable" STRUCT(
"value" FLOAT DOUBLE
) PROP( "key" "element" )
VALUE
"temp" "variable" ( 27 ) PROP( )
END
