HEADER
"PSFversion" "1.00"
"Time Stamp" "Jan 31 14:22:22 2024"
TYPE
"variable" STRUCT(
"value" FLOAT DOUBLE
) PROP( "key" "element" )
VALUE
"temp" "variable" ( 27 ) PROP( )
END
