HEADER
"PSFversion" "1.00"
"simulator" "spectre"
"version" "21.1.0.751.isr19"
"date" "9:21:47 PM, Sat Apr 20, 2024"
"design" "// Point Netlist Generated on: Apr 20 21:21:46 2024"
"analysis type" "info"
"analysis name" "designParamVals"
"analysis description" "Circuit Information"
"xVecSorted" "unknown"
"tolerance.relative" 0.000100000
END
