HEADER
"PSFversion" "1.00"
"design" "(\"lab2024\" \"tb_nand3\" \"schematic\" \"\")"
"simulator" "spectre"
"temperature" "27"
"host" ""
"date" "Feb 26 12:17:18 2024"
"title" ""
"analysisList" "()"
END
