HEADER
"PSFversion" "1.00"
"Time Stamp" "Mar  8 13:50:27 2024"
TYPE
"variable" STRUCT(
"value" FLOAT DOUBLE
) PROP( "key" "element" )
VALUE
"Vsupply" "variable" ( 3.3 ) PROP( )
"temperature" "variable" ( 27 ) PROP( )
"temp" "variable" ( 27 ) PROP( )
END
