HEADER
"PSFversion" "1.00"
"Time Stamp" "Apr 15 14:52:53 2024"
TYPE
"variable" STRUCT(
"value" FLOAT DOUBLE
) PROP( "key" "element" )
VALUE
"temp" "variable" ( 27 ) PROP( )
END
