HEADER
"PSFversion" "1.00"
"design" "(\"lab2024\" \"tb_ycircuitcustom\" \"schematic\" \"\")"
"simulator" "spectre"
"temperature" "27"
"host" ""
"date" "Apr 15 15:31:17 2024"
"title" ""
"analysisList" "()"
END
