HEADER
"PSFversion" "1.00"
"Time Stamp" "Mar 11 15:05:31 2024"
TYPE
"variable" STRUCT(
"value" FLOAT DOUBLE
) PROP( "key" "element" )
VALUE
"Vsupply" "variable" ( 3.3 ) PROP( )
"temperature" "variable" ( 85 ) PROP( )
"temp" "variable" ( 85 ) PROP( )
END
