HEADER
"PSFversion" "1.00"
"Dv" ":1v"
"Gv" ":2v"
"Sv" ":3v"
"Bv" ":4v"
