HEADER
"PSFversion" "1.00"
"design" "(\"lab2024\" \"tb_invParam\" \"schematic\" \"\")"
"simulator" "spectre"
"temperature" "27"
"host" ""
"date" "Apr 12 16:28:54 2024"
"title" ""
"analysisList" "()"
END
