HEADER
"PSFversion" "1.00"
"Time Stamp" "Mar  1 13:42:31 2024"
TYPE
"variable" STRUCT(
"value" FLOAT DOUBLE
) PROP( "key" "element" )
VALUE
"temp" "variable" ( 27 ) PROP( )
END
