HEADER
"PSFversion" "1.00"
"design" "(\"lab2024\" \"tb_invParam\" \"schematic\" \"\")"
"simulator" "spectre"
"temperature" "85"
"host" ""
"date" "Mar 11 15:04:23 2024"
"title" ""
"analysisList" "()"
END
