HEADER
"PSFversion" "1.00"
"design" "(\"lab2024\" \"tb_xorc\" \"schematic\" \"\")"
"simulator" "spectre"
"temperature" "27"
"host" ""
"date" "Apr 24 12:17:41 2024"
"title" ""
"analysisList" "()"
END
