HEADER
"PSFversion" "1.00"
"design" "(\"lab2024\" \"tb_xorc\" \"schematic\" \"\")"
"simulator" "spectre"
"temperature" "27"
"host" ""
"date" "Apr 15 19:26:28 2024"
"title" ""
"analysisList" "()"
END
