HEADER
"PSFversion" "1.00"
"Time Stamp" "Apr 20 21:00:39 2024"
TYPE
"variable" STRUCT(
"value" FLOAT DOUBLE
) PROP( "key" "element" )
VALUE
"Vsupply" "variable" ( 3.3 ) PROP( )
"temperature" "variable" ( 27 ) PROP( )
"temp" "variable" ( 27 ) PROP( )
END
